<?xml version="1.0" encoding="UTF-8"?>

<!-- generated on Wed May 31 15:35:33 2023 by Eclipse SUMO Version 1.4.0
<configuration xmlns:xsi="http://www.w3.org/2001/XMLSchema-instance" xsi:noNamespaceSchemaLocation="http://sumo.dlr.de/xsd/sumoConfiguration.xsd">

    <input>
        <net-file value="maps/city1.net.xml"/>
        <route-files value="maps/city1.rou.xml"/>
    </input>

    <output>
        <tripinfo-output value="maps/tripinfo.xml"/>
    </output>

    <time>
        <begin value="0"/>
        <end value="200"/>
    </time>

    <report>
        <verbose value="true"/>
        <no-step-log value="true"/>
    </report>

    <traci_server>
        <remote-port value="53793"/>
    </traci_server>

</configuration>
-->

<tripinfos xmlns:xsi="http://www.w3.org/2001/XMLSchema-instance" xsi:noNamespaceSchemaLocation="http://sumo.dlr.de/xsd/tripinfo_file.xsd">
    <tripinfo id="13" depart="13.00" departLane="-gneE14_0" departPos="5.10" departSpeed="0.00" departDelay="0.00" arrival="23.00" arrivalLane="-gneE14_0" arrivalPos="89.60" arrivalSpeed="14.27" duration="10.00" routeLength="84.50" waitingTime="0.00" waitingCount="0" stopTime="0.00" timeLoss="3.61" rerouteNo="0" devices="tripinfo_13" vType="DEFAULT_VEHTYPE" speedFactor="1.09" vaporized=""/>
    <tripinfo id="4" depart="4.00" departLane="-gneE5_0" departPos="5.10" departSpeed="0.00" departDelay="0.00" arrival="55.00" arrivalLane="-gneE1_0" arrivalPos="85.60" arrivalSpeed="12.98" duration="51.00" routeLength="374.92" waitingTime="12.00" waitingCount="1" stopTime="0.00" timeLoss="22.37" rerouteNo="0" devices="tripinfo_4" vType="DEFAULT_VEHTYPE" speedFactor="1.01" vaporized=""/>
    <tripinfo id="0" depart="0.00" departLane="gneE18_0" departPos="5.10" departSpeed="0.00" departDelay="0.00" arrival="71.00" arrivalLane="-gneE1_0" arrivalPos="85.60" arrivalSpeed="14.06" duration="71.00" routeLength="682.01" waitingTime="7.00" waitingCount="1" stopTime="0.00" timeLoss="22.51" rerouteNo="0" devices="tripinfo_0" vType="DEFAULT_VEHTYPE" speedFactor="1.06" vaporized=""/>
    <tripinfo id="8" depart="8.00" departLane="-gneE26_0" departPos="5.10" departSpeed="0.00" departDelay="0.00" arrival="73.00" arrivalLane="gneE14_0" arrivalPos="89.60" arrivalSpeed="12.74" duration="65.00" routeLength="391.59" waitingTime="24.00" waitingCount="1" stopTime="0.00" timeLoss="36.53" rerouteNo="0" devices="tripinfo_8" vType="DEFAULT_VEHTYPE" speedFactor="1.05" vaporized=""/>
    <tripinfo id="20" depart="20.00" departLane="gneE22_0" departPos="5.10" departSpeed="0.00" departDelay="0.00" arrival="76.00" arrivalLane="-gneE10_0" arrivalPos="96.80" arrivalSpeed="7.24" duration="56.00" routeLength="579.33" waitingTime="0.00" waitingCount="0" stopTime="0.00" timeLoss="9.83" rerouteNo="0" devices="tripinfo_20" vType="DEFAULT_VEHTYPE" speedFactor="0.93" vaporized=""/>
    <tripinfo id="6" depart="6.00" departLane="-gneE10_0" departPos="5.10" departSpeed="0.00" departDelay="0.00" arrival="78.00" arrivalLane="-gneE21_0" arrivalPos="87.62" arrivalSpeed="13.69" duration="72.00" routeLength="780.42" waitingTime="0.00" waitingCount="0" stopTime="0.00" timeLoss="15.76" rerouteNo="0" devices="tripinfo_6" vType="DEFAULT_VEHTYPE" speedFactor="1.03" vaporized=""/>
    <tripinfo id="9" depart="9.00" departLane="gneE3_0" departPos="5.10" departSpeed="0.00" departDelay="0.00" arrival="79.00" arrivalLane="-gneE0_0" arrivalPos="92.80" arrivalSpeed="12.23" duration="70.00" routeLength="671.38" waitingTime="0.00" waitingCount="0" stopTime="0.00" timeLoss="11.77" rerouteNo="0" devices="tripinfo_9" vType="DEFAULT_VEHTYPE" speedFactor="0.89" vaporized=""/>
    <tripinfo id="27" depart="27.00" departLane="gneE19_0" departPos="5.10" departSpeed="0.00" departDelay="0.00" arrival="80.00" arrivalLane="gneE17_0" arrivalPos="92.80" arrivalSpeed="15.23" duration="53.00" routeLength="585.39" waitingTime="0.00" waitingCount="0" stopTime="0.00" timeLoss="14.36" rerouteNo="0" devices="tripinfo_27" vType="DEFAULT_VEHTYPE" speedFactor="1.16" vaporized=""/>
    <tripinfo id="33" depart="33.00" departLane="-gneE26_0" departPos="5.10" departSpeed="0.00" departDelay="0.00" arrival="87.00" arrivalLane="-gneE10_0" arrivalPos="96.80" arrivalSpeed="11.11" duration="54.00" routeLength="491.90" waitingTime="0.00" waitingCount="0" stopTime="0.00" timeLoss="10.17" rerouteNo="0" devices="tripinfo_33" vType="DEFAULT_VEHTYPE" speedFactor="0.83" vaporized=""/>
    <tripinfo id="47" depart="50.00" departLane="-gneE13_0" departPos="5.10" departSpeed="0.00" departDelay="3.00" arrival="92.00" arrivalLane="-gneE38_0" arrivalPos="296.80" arrivalSpeed="15.78" duration="42.00" routeLength="490.87" waitingTime="0.00" waitingCount="0" stopTime="0.00" timeLoss="10.14" rerouteNo="0" devices="tripinfo_47" vType="DEFAULT_VEHTYPE" speedFactor="1.17" vaporized=""/>
    <tripinfo id="52" depart="52.00" departLane="-gneE29_0" departPos="5.10" departSpeed="0.00" departDelay="0.00" arrival="96.00" arrivalLane="gneE21_0" arrivalPos="87.62" arrivalSpeed="7.21" duration="44.00" routeLength="413.15" waitingTime="1.00" waitingCount="1" stopTime="0.00" timeLoss="15.89" rerouteNo="0" devices="tripinfo_52" vType="DEFAULT_VEHTYPE" speedFactor="1.10" vaporized=""/>
    <tripinfo id="56" depart="56.00" departLane="gneE0_0" departPos="5.10" departSpeed="0.00" departDelay="0.00" arrival="100.00" arrivalLane="-gneE20_0" arrivalPos="92.80" arrivalSpeed="14.81" duration="44.00" routeLength="284.16" waitingTime="13.00" waitingCount="1" stopTime="0.00" timeLoss="24.05" rerouteNo="0" devices="tripinfo_56" vType="DEFAULT_VEHTYPE" speedFactor="1.09" vaporized=""/>
    <tripinfo id="90" depart="90.00" departLane="gneE23_0" departPos="5.10" departSpeed="0.00" departDelay="0.00" arrival="100.00" arrivalLane="gneE23_0" arrivalPos="89.60" arrivalSpeed="13.55" duration="10.00" routeLength="84.50" waitingTime="0.00" waitingCount="0" stopTime="0.00" timeLoss="3.35" rerouteNo="0" devices="tripinfo_90" vType="DEFAULT_VEHTYPE" speedFactor="1.02" vaporized=""/>
    <tripinfo id="7" depart="7.00" departLane="gneE19_0" departPos="5.10" departSpeed="0.00" departDelay="0.00" arrival="101.00" arrivalLane="gneE11_0" arrivalPos="92.80" arrivalSpeed="11.11" duration="94.00" routeLength="678.58" waitingTime="17.00" waitingCount="1" stopTime="0.00" timeLoss="32.35" rerouteNo="0" devices="tripinfo_7" vType="DEFAULT_VEHTYPE" speedFactor="0.83" vaporized=""/>
    <tripinfo id="53" depart="53.00" departLane="-gneE18_0" departPos="5.10" departSpeed="0.00" departDelay="0.00" arrival="104.00" arrivalLane="-gneE5_0" arrivalPos="85.60" arrivalSpeed="9.07" duration="51.00" routeLength="275.23" waitingTime="10.00" waitingCount="1" stopTime="0.00" timeLoss="27.36" rerouteNo="0" devices="tripinfo_53" vType="DEFAULT_VEHTYPE" speedFactor="0.90" vaporized=""/>
    <tripinfo id="35" depart="35.00" departLane="-gneE25_0" departPos="5.10" departSpeed="0.00" departDelay="0.00" arrival="107.00" arrivalLane="gneE6_0" arrivalPos="92.80" arrivalSpeed="11.63" duration="72.00" routeLength="477.06" waitingTime="16.00" waitingCount="1" stopTime="0.00" timeLoss="30.17" rerouteNo="0" devices="tripinfo_35" vType="DEFAULT_VEHTYPE" speedFactor="0.87" vaporized=""/>
    <tripinfo id="30" depart="30.00" departLane="gneE9_0" departPos="5.10" departSpeed="0.00" departDelay="0.00" arrival="108.00" arrivalLane="gneE2_0" arrivalPos="185.60" arrivalSpeed="12.25" duration="78.00" routeLength="379.13" waitingTime="40.00" waitingCount="1" stopTime="0.00" timeLoss="48.69" rerouteNo="0" devices="tripinfo_30" vType="DEFAULT_VEHTYPE" speedFactor="0.98" vaporized=""/>
    <tripinfo id="51" depart="51.00" departLane="gneE20_0" departPos="5.10" departSpeed="0.00" departDelay="0.00" arrival="115.00" arrivalLane="gneE11_0" arrivalPos="92.80" arrivalSpeed="15.25" duration="64.00" routeLength="584.16" waitingTime="6.00" waitingCount="2" stopTime="0.00" timeLoss="26.75" rerouteNo="0" devices="tripinfo_51" vType="DEFAULT_VEHTYPE" speedFactor="1.18" vaporized=""/>
    <tripinfo id="85" depart="86.00" departLane="gneE5_0" departPos="5.10" departSpeed="0.00" departDelay="1.00" arrival="119.00" arrivalLane="gneE13_0" arrivalPos="92.80" arrivalSpeed="11.87" duration="33.00" routeLength="287.49" waitingTime="0.00" waitingCount="0" stopTime="0.00" timeLoss="10.15" rerouteNo="0" devices="tripinfo_85" vType="DEFAULT_VEHTYPE" speedFactor="0.94" vaporized=""/>
    <tripinfo id="5" depart="5.00" departLane="-gneE25_0" departPos="5.10" departSpeed="0.00" departDelay="0.00" arrival="125.00" arrivalLane="gneE1_0" arrivalPos="85.60" arrivalSpeed="13.91" duration="120.00" routeLength="774.81" waitingTime="47.00" waitingCount="2" stopTime="0.00" timeLoss="66.27" rerouteNo="0" devices="tripinfo_5" vType="DEFAULT_VEHTYPE" speedFactor="1.08" vaporized=""/>
    <tripinfo id="49" depart="49.00" departLane="gneE8_0" departPos="5.10" departSpeed="0.00" departDelay="0.00" arrival="126.00" arrivalLane="gneE34_0" arrivalPos="85.60" arrivalSpeed="13.01" duration="77.00" routeLength="781.73" waitingTime="0.00" waitingCount="0" stopTime="0.00" timeLoss="20.13" rerouteNo="0" devices="tripinfo_49" vType="DEFAULT_VEHTYPE" speedFactor="1.02" vaporized=""/>
    <tripinfo id="29" depart="31.00" departLane="-gneE22_0" departPos="5.10" departSpeed="0.00" departDelay="2.00" arrival="137.00" arrivalLane="-gneE38_0" arrivalPos="296.80" arrivalSpeed="13.84" duration="106.00" routeLength="883.56" waitingTime="18.00" waitingCount="2" stopTime="0.00" timeLoss="40.53" rerouteNo="0" devices="tripinfo_29" vType="DEFAULT_VEHTYPE" speedFactor="1.01" vaporized=""/>
    <tripinfo id="60" depart="60.00" departLane="gneE25_0" departPos="5.10" departSpeed="0.00" departDelay="0.00" arrival="137.00" arrivalLane="gneE11_0" arrivalPos="92.80" arrivalSpeed="14.17" duration="77.00" routeLength="589.00" waitingTime="18.00" waitingCount="1" stopTime="0.00" timeLoss="35.30" rerouteNo="0" devices="tripinfo_60" vType="DEFAULT_VEHTYPE" speedFactor="1.09" vaporized=""/>
    <tripinfo id="86" depart="86.00" departLane="-gneE8_0" departPos="5.10" departSpeed="0.00" departDelay="0.00" arrival="138.00" arrivalLane="gneE3_0" arrivalPos="185.60" arrivalSpeed="12.16" duration="52.00" routeLength="375.13" waitingTime="2.00" waitingCount="1" stopTime="0.00" timeLoss="19.66" rerouteNo="0" devices="tripinfo_86" vType="DEFAULT_VEHTYPE" speedFactor="0.88" vaporized=""/>
    <tripinfo id="127" depart="132.00" departLane="gneE9_0" departPos="5.10" departSpeed="0.00" departDelay="5.00" arrival="142.00" arrivalLane="gneE9_0" arrivalPos="89.60" arrivalSpeed="11.74" duration="10.00" routeLength="84.50" waitingTime="0.00" waitingCount="0" stopTime="0.00" timeLoss="3.18" rerouteNo="0" devices="tripinfo_127" vType="DEFAULT_VEHTYPE" speedFactor="0.91" vaporized=""/>
    <tripinfo id="2" depart="2.00" departLane="gneE24_0" departPos="5.10" departSpeed="0.00" departDelay="0.00" arrival="145.00" arrivalLane="gneE23_0" arrivalPos="89.60" arrivalSpeed="12.87" duration="143.00" routeLength="768.59" waitingTime="58.00" waitingCount="3" stopTime="0.00" timeLoss="81.69" rerouteNo="0" devices="tripinfo_2" vType="DEFAULT_VEHTYPE" speedFactor="0.94" vaporized=""/>
    <tripinfo id="28" depart="28.00" departLane="-gneE22_0" departPos="5.10" departSpeed="0.00" departDelay="0.00" arrival="146.00" arrivalLane="gneE26_0" arrivalPos="92.80" arrivalSpeed="13.75" duration="118.00" routeLength="787.27" waitingTime="35.00" waitingCount="3" stopTime="0.00" timeLoss="59.57" rerouteNo="0" devices="tripinfo_28" vType="DEFAULT_VEHTYPE" speedFactor="1.02" vaporized=""/>
    <tripinfo id="25" depart="25.00" departLane="-gneE34_0" departPos="5.10" departSpeed="0.00" departDelay="0.00" arrival="148.00" arrivalLane="-gneE22_0" arrivalPos="85.60" arrivalSpeed="12.49" duration="123.00" routeLength="580.18" waitingTime="57.00" waitingCount="3" stopTime="0.00" timeLoss="77.18" rerouteNo="0" devices="tripinfo_25" vType="DEFAULT_VEHTYPE" speedFactor="0.94" vaporized=""/>
    <tripinfo id="16" depart="16.00" departLane="gneE10_0" departPos="5.10" departSpeed="0.00" departDelay="0.00" arrival="152.00" arrivalLane="gneE8_0" arrivalPos="85.60" arrivalSpeed="13.89" duration="136.00" routeLength="683.97" waitingTime="56.00" waitingCount="4" stopTime="0.00" timeLoss="86.36" rerouteNo="0" devices="tripinfo_16" vType="DEFAULT_VEHTYPE" speedFactor="1.05" vaporized=""/>
    <tripinfo id="97" depart="97.00" departLane="-gneE6_0" departPos="5.10" departSpeed="0.00" departDelay="0.00" arrival="152.00" arrivalLane="gneE34_0" arrivalPos="85.60" arrivalSpeed="13.42" duration="55.00" routeLength="282.33" waitingTime="26.00" waitingCount="1" stopTime="0.00" timeLoss="34.73" rerouteNo="0" devices="tripinfo_97" vType="DEFAULT_VEHTYPE" speedFactor="1.06" vaporized=""/>
    <tripinfo id="117" depart="117.00" departLane="-gneE27_0" departPos="5.10" departSpeed="0.00" departDelay="0.00" arrival="152.00" arrivalLane="-gneE17_0" arrivalPos="92.80" arrivalSpeed="11.36" duration="35.00" routeLength="387.59" waitingTime="0.00" waitingCount="0" stopTime="0.00" timeLoss="6.38" rerouteNo="0" devices="tripinfo_117" vType="DEFAULT_VEHTYPE" speedFactor="1.02" vaporized=""/>
    <tripinfo id="15" depart="15.00" departLane="gneE3_0" departPos="5.10" departSpeed="0.00" departDelay="0.00" arrival="156.00" arrivalLane="gneE26_0" arrivalPos="92.80" arrivalSpeed="13.63" duration="141.00" routeLength="782.22" waitingTime="59.00" waitingCount="3" stopTime="0.00" timeLoss="84.34" rerouteNo="0" devices="tripinfo_15" vType="DEFAULT_VEHTYPE" speedFactor="1.03" vaporized=""/>
    <tripinfo id="63" depart="63.00" departLane="-gneE10_0" departPos="5.10" departSpeed="0.00" departDelay="0.00" arrival="156.00" arrivalLane="gneE5_0" arrivalPos="85.60" arrivalSpeed="13.24" duration="93.00" routeLength="573.14" waitingTime="21.00" waitingCount="2" stopTime="0.00" timeLoss="49.41" rerouteNo="0" devices="tripinfo_63" vType="DEFAULT_VEHTYPE" speedFactor="1.00" vaporized=""/>
    <tripinfo id="11" depart="11.00" departLane="-gneE32_0" departPos="5.10" departSpeed="0.00" departDelay="0.00" arrival="157.00" arrivalLane="-gneE19_0" arrivalPos="92.80" arrivalSpeed="11.32" duration="146.00" routeLength="1010.21" waitingTime="42.00" waitingCount="1" stopTime="0.00" timeLoss="58.78" rerouteNo="0" devices="tripinfo_11" vType="DEFAULT_VEHTYPE" speedFactor="0.86" vaporized=""/>
    <tripinfo id="73" depart="73.00" departLane="gneE10_0" departPos="5.10" departSpeed="0.00" departDelay="0.00" arrival="161.00" arrivalLane="gneE26_0" arrivalPos="92.80" arrivalSpeed="12.74" duration="88.00" routeLength="491.90" waitingTime="42.00" waitingCount="1" stopTime="0.00" timeLoss="51.85" rerouteNo="0" devices="tripinfo_73" vType="DEFAULT_VEHTYPE" speedFactor="1.00" vaporized=""/>
    <tripinfo id="121" depart="121.00" departLane="gneE1_0" departPos="5.10" departSpeed="0.00" departDelay="0.00" arrival="166.00" arrivalLane="gneE5_0" arrivalPos="85.60" arrivalSpeed="11.41" duration="45.00" routeLength="374.92" waitingTime="0.00" waitingCount="0" stopTime="0.00" timeLoss="9.90" rerouteNo="0" devices="tripinfo_121" vType="DEFAULT_VEHTYPE" speedFactor="0.83" vaporized=""/>
    <tripinfo id="76" depart="76.00" departLane="-gneE6_0" departPos="5.10" departSpeed="0.00" departDelay="0.00" arrival="167.00" arrivalLane="gneE10_0" arrivalPos="96.80" arrivalSpeed="14.97" duration="91.00" routeLength="596.03" waitingTime="35.00" waitingCount="1" stopTime="0.00" timeLoss="51.62" rerouteNo="0" devices="tripinfo_76" vType="DEFAULT_VEHTYPE" speedFactor="1.14" vaporized=""/>
    <tripinfo id="136" depart="136.00" departLane="gneE2_0" departPos="5.10" departSpeed="0.00" departDelay="0.00" arrival="168.00" arrivalLane="gneE6_0" arrivalPos="92.80" arrivalSpeed="12.09" duration="32.00" routeLength="287.70" waitingTime="0.00" waitingCount="0" stopTime="0.00" timeLoss="8.11" rerouteNo="0" devices="tripinfo_136" vType="DEFAULT_VEHTYPE" speedFactor="0.89" vaporized=""/>
    <tripinfo id="87" depart="87.00" departLane="gneE3_0" departPos="5.10" departSpeed="0.00" departDelay="0.00" arrival="169.00" arrivalLane="-gneE21_0" arrivalPos="87.62" arrivalSpeed="11.45" duration="82.00" routeLength="576.83" waitingTime="5.00" waitingCount="1" stopTime="0.00" timeLoss="33.07" rerouteNo="0" devices="tripinfo_87" vType="DEFAULT_VEHTYPE" speedFactor="0.91" vaporized=""/>
    <tripinfo id="111" depart="120.00" departLane="gneE10_0" departPos="5.10" departSpeed="0.00" departDelay="9.00" arrival="170.00" arrivalLane="gneE27_0" arrivalPos="92.80" arrivalSpeed="13.46" duration="50.00" routeLength="486.53" waitingTime="0.00" waitingCount="0" stopTime="0.00" timeLoss="13.02" rerouteNo="0" devices="tripinfo_111" vType="DEFAULT_VEHTYPE" speedFactor="0.98" vaporized=""/>
    <tripinfo id="26" depart="26.00" departLane="-gneE29_0" departPos="5.10" departSpeed="0.00" departDelay="0.00" arrival="171.00" arrivalLane="gneE5_0" arrivalPos="85.60" arrivalSpeed="12.03" duration="145.00" routeLength="707.67" waitingTime="63.00" waitingCount="3" stopTime="0.00" timeLoss="86.87" rerouteNo="0" devices="tripinfo_26" vType="DEFAULT_VEHTYPE" speedFactor="0.94" vaporized=""/>
    <tripinfo id="67" depart="67.00" departLane="-gneE14_0" departPos="5.10" departSpeed="0.00" departDelay="0.00" arrival="171.00" arrivalLane="-gneE9_0" arrivalPos="89.60" arrivalSpeed="11.77" duration="104.00" routeLength="688.08" waitingTime="23.00" waitingCount="2" stopTime="0.00" timeLoss="44.21" rerouteNo="0" devices="tripinfo_67" vType="DEFAULT_VEHTYPE" speedFactor="0.85" vaporized=""/>
    <tripinfo id="31" depart="31.00" departLane="gneE11_0" departPos="5.10" departSpeed="0.00" departDelay="0.00" arrival="173.00" arrivalLane="gneE23_0" arrivalPos="89.60" arrivalSpeed="12.29" duration="142.00" routeLength="875.51" waitingTime="40.00" waitingCount="2" stopTime="0.00" timeLoss="69.45" rerouteNo="0" devices="tripinfo_31" vType="DEFAULT_VEHTYPE" speedFactor="0.89" vaporized=""/>
    <tripinfo id="125" depart="125.00" departLane="-gneE31_0" departPos="5.10" departSpeed="0.00" departDelay="0.00" arrival="175.00" arrivalLane="gneE28_0" arrivalPos="216.45" arrivalSpeed="13.68" duration="50.00" routeLength="503.77" waitingTime="0.00" waitingCount="0" stopTime="0.00" timeLoss="13.54" rerouteNo="0" devices="tripinfo_125" vType="DEFAULT_VEHTYPE" speedFactor="1.06" vaporized=""/>
    <tripinfo id="124" depart="125.00" departLane="gneE2_0" departPos="5.10" departSpeed="0.00" departDelay="1.00" arrival="176.00" arrivalLane="-gneE3_0" arrivalPos="185.60" arrivalSpeed="13.93" duration="51.00" routeLength="480.08" waitingTime="0.00" waitingCount="0" stopTime="0.00" timeLoss="17.87" rerouteNo="0" devices="tripinfo_124" vType="DEFAULT_VEHTYPE" speedFactor="1.09" vaporized=""/>
    <tripinfo id="68" depart="68.00" departLane="-gneE13_0" departPos="5.10" departSpeed="0.00" departDelay="0.00" arrival="177.00" arrivalLane="gneE28_0" arrivalPos="216.45" arrivalSpeed="15.91" duration="109.00" routeLength="798.93" waitingTime="17.00" waitingCount="3" stopTime="0.00" timeLoss="56.70" rerouteNo="0" devices="tripinfo_68" vType="DEFAULT_VEHTYPE" speedFactor="1.17" vaporized=""/>
    <tripinfo id="94" depart="94.00" departLane="-gneE24_0" departPos="5.10" departSpeed="0.00" departDelay="0.00" arrival="178.00" arrivalLane="-gneE6_0" arrivalPos="92.80" arrivalSpeed="9.64" duration="84.00" routeLength="380.39" waitingTime="28.00" waitingCount="2" stopTime="0.00" timeLoss="54.52" rerouteNo="0" devices="tripinfo_94" vType="DEFAULT_VEHTYPE" speedFactor="0.97" vaporized=""/>
    <tripinfo id="44" depart="44.00" departLane="-gneE14_0" departPos="5.10" departSpeed="0.00" departDelay="0.00" arrival="179.00" arrivalLane="-gneE11_0" arrivalPos="92.80" arrivalSpeed="15.02" duration="135.00" routeLength="885.52" waitingTime="46.00" waitingCount="2" stopTime="0.00" timeLoss="76.81" rerouteNo="0" devices="tripinfo_44" vType="DEFAULT_VEHTYPE" speedFactor="1.15" vaporized=""/>
    <tripinfo id="71" depart="71.00" departLane="-gneE28_0" departPos="5.10" departSpeed="0.00" departDelay="0.00" arrival="181.00" arrivalLane="gneE34_0" arrivalPos="85.60" arrivalSpeed="14.78" duration="110.00" routeLength="699.16" waitingTime="41.00" waitingCount="2" stopTime="0.00" timeLoss="61.42" rerouteNo="0" devices="tripinfo_71" vType="DEFAULT_VEHTYPE" speedFactor="1.10" vaporized=""/>
    <tripinfo id="17" depart="17.00" departLane="-gneE36_0" departPos="5.10" departSpeed="0.00" departDelay="0.00" arrival="184.00" arrivalLane="gneE12_0" arrivalPos="85.60" arrivalSpeed="6.19" duration="167.00" routeLength="687.49" waitingTime="86.00" waitingCount="4" stopTime="0.00" timeLoss="122.04" rerouteNo="0" devices="tripinfo_17" vType="DEFAULT_VEHTYPE" speedFactor="1.12" vaporized=""/>
    <tripinfo id="102" depart="102.00" departLane="-gneE9_0" departPos="5.10" departSpeed="0.00" departDelay="0.00" arrival="184.00" arrivalLane="-gneE22_0" arrivalPos="85.60" arrivalSpeed="5.68" duration="82.00" routeLength="681.83" waitingTime="11.00" waitingCount="2" stopTime="0.00" timeLoss="30.40" rerouteNo="0" devices="tripinfo_102" vType="DEFAULT_VEHTYPE" speedFactor="0.98" vaporized=""/>
    <tripinfo id="88" depart="90.00" departLane="-gneE17_0" departPos="5.10" departSpeed="0.00" departDelay="2.00" arrival="186.00" arrivalLane="-gneE5_0" arrivalPos="85.60" arrivalSpeed="8.88" duration="96.00" routeLength="182.33" waitingTime="60.00" waitingCount="3" stopTime="0.00" timeLoss="80.04" rerouteNo="0" devices="tripinfo_88" vType="DEFAULT_VEHTYPE" speedFactor="0.91" vaporized=""/>
    <tripinfo id="55" depart="55.00" departLane="gneE38_0" departPos="5.10" departSpeed="0.00" departDelay="0.00" arrival="190.00" arrivalLane="-gneE25_0" arrivalPos="92.80" arrivalSpeed="12.04" duration="135.00" routeLength="880.23" waitingTime="44.00" waitingCount="1" stopTime="0.00" timeLoss="66.59" rerouteNo="0" devices="tripinfo_55" vType="DEFAULT_VEHTYPE" speedFactor="0.96" vaporized=""/>
    <tripinfo id="138" depart="138.00" departLane="-gneE17_0" departPos="5.10" departSpeed="0.00" departDelay="0.00" arrival="191.00" arrivalLane="gneE12_0" arrivalPos="85.60" arrivalSpeed="5.74" duration="53.00" routeLength="187.49" waitingTime="22.00" waitingCount="1" stopTime="0.00" timeLoss="38.68" rerouteNo="0" devices="tripinfo_138" vType="DEFAULT_VEHTYPE" speedFactor="1.01" vaporized=""/>
    <tripinfo id="70" depart="71.00" departLane="-gneE8_0" departPos="5.10" departSpeed="0.00" departDelay="1.00" arrival="193.00" arrivalLane="gneE12_0" arrivalPos="85.60" arrivalSpeed="7.05" duration="122.00" routeLength="469.76" waitingTime="50.00" waitingCount="3" stopTime="0.00" timeLoss="87.67" rerouteNo="0" devices="tripinfo_70" vType="DEFAULT_VEHTYPE" speedFactor="1.02" vaporized=""/>
    <tripinfo id="66" depart="67.00" departLane="gneE38_0" departPos="5.10" departSpeed="0.00" departDelay="1.00" arrival="194.00" arrivalLane="gneE6_0" arrivalPos="92.80" arrivalSpeed="10.88" duration="127.00" routeLength="690.87" waitingTime="48.00" waitingCount="2" stopTime="0.00" timeLoss="66.92" rerouteNo="0" devices="tripinfo_66" vType="DEFAULT_VEHTYPE" speedFactor="0.85" vaporized=""/>
    <tripinfo id="19" depart="19.00" departLane="gneE35_0" departPos="5.10" departSpeed="0.00" departDelay="0.00" arrival="196.00" arrivalLane="gneE13_0" arrivalPos="92.80" arrivalSpeed="12.69" duration="177.00" routeLength="789.32" waitingTime="86.00" waitingCount="4" stopTime="0.00" timeLoss="117.98" rerouteNo="0" devices="tripinfo_19" vType="DEFAULT_VEHTYPE" speedFactor="0.99" vaporized=""/>
    <tripinfo id="57" depart="58.00" departLane="gneE4_0" departPos="5.10" departSpeed="0.00" departDelay="1.00" arrival="197.00" arrivalLane="gneE34_0" arrivalPos="85.60" arrivalSpeed="13.44" duration="139.00" routeLength="664.18" waitingTime="52.00" waitingCount="3" stopTime="0.00" timeLoss="89.96" rerouteNo="0" devices="tripinfo_57" vType="DEFAULT_VEHTYPE" speedFactor="1.04" vaporized=""/>
    <tripinfo id="38" depart="43.00" departLane="gneE4_0" departPos="5.10" departSpeed="0.00" departDelay="5.00" arrival="199.00" arrivalLane="-gneE7_0" arrivalPos="92.80" arrivalSpeed="11.50" duration="156.00" routeLength="587.17" waitingTime="76.00" waitingCount="5" stopTime="0.00" timeLoss="107.10" rerouteNo="0" devices="tripinfo_38" vType="DEFAULT_VEHTYPE" speedFactor="0.92" vaporized=""/>
    <tripinfo id="10" depart="12.00" departLane="gneE3_0" departPos="5.10" departSpeed="0.00" departDelay="2.00" arrival="200.00" arrivalLane="gneE24_0" arrivalPos="85.60" arrivalSpeed="8.43" duration="188.00" routeLength="669.65" waitingTime="88.00" waitingCount="5" stopTime="0.00" timeLoss="134.71" rerouteNo="0" devices="tripinfo_10" vType="DEFAULT_VEHTYPE" speedFactor="0.94" vaporized=""/>
    <tripinfo id="45" depart="45.00" departLane="-gneE18_0" departPos="5.10" departSpeed="0.00" departDelay="0.00" arrival="200.00" arrivalLane="gneE2_0" arrivalPos="185.60" arrivalSpeed="12.88" duration="155.00" routeLength="865.93" waitingTime="57.00" waitingCount="4" stopTime="0.00" timeLoss="91.01" rerouteNo="0" devices="tripinfo_45" vType="DEFAULT_VEHTYPE" speedFactor="1.01" vaporized=""/>
    <tripinfo id="74" depart="76.00" departLane="-gneE24_0" departPos="5.10" departSpeed="0.00" departDelay="2.00" arrival="202.00" arrivalLane="-gneE3_0" arrivalPos="185.60" arrivalSpeed="11.82" duration="126.00" routeLength="674.81" waitingTime="37.00" waitingCount="3" stopTime="0.00" timeLoss="69.39" rerouteNo="0" devices="tripinfo_74" vType="DEFAULT_VEHTYPE" speedFactor="0.90" vaporized=""/>
    <tripinfo id="99" depart="99.00" departLane="gneE9_0" departPos="5.10" departSpeed="0.00" departDelay="0.00" arrival="207.00" arrivalLane="gneE32_0" arrivalPos="219.65" arrivalSpeed="12.80" duration="108.00" routeLength="1005.61" waitingTime="5.00" waitingCount="1" stopTime="0.00" timeLoss="32.58" rerouteNo="0" devices="tripinfo_99" vType="DEFAULT_VEHTYPE" speedFactor="0.98" vaporized=""/>
    <tripinfo id="134" depart="134.00" departLane="gneE19_0" departPos="5.10" departSpeed="0.00" departDelay="0.00" arrival="209.00" arrivalLane="-gneE0_0" arrivalPos="92.80" arrivalSpeed="13.00" duration="75.00" routeLength="394.48" waitingTime="28.00" waitingCount="1" stopTime="0.00" timeLoss="42.77" rerouteNo="0" devices="tripinfo_134" vType="DEFAULT_VEHTYPE" speedFactor="0.95" vaporized=""/>
    <tripinfo id="43" depart="43.00" departLane="gneE9_0" departPos="5.10" departSpeed="0.00" departDelay="0.00" arrival="210.00" arrivalLane="gneE1_0" arrivalPos="85.60" arrivalSpeed="5.92" duration="167.00" routeLength="778.50" waitingTime="80.00" waitingCount="4" stopTime="0.00" timeLoss="116.46" rerouteNo="0" devices="tripinfo_43" vType="DEFAULT_VEHTYPE" speedFactor="1.18" vaporized=""/>
    <tripinfo id="128" depart="129.00" departLane="-gneE13_0" departPos="5.10" departSpeed="0.00" departDelay="1.00" arrival="211.00" arrivalLane="-gneE22_0" arrivalPos="85.60" arrivalSpeed="9.71" duration="82.00" routeLength="476.85" waitingTime="16.00" waitingCount="2" stopTime="0.00" timeLoss="49.16" rerouteNo="0" devices="tripinfo_128" vType="DEFAULT_VEHTYPE" speedFactor="1.12" vaporized=""/>
    <tripinfo id="179" depart="179.00" departLane="-gneE17_0" departPos="5.10" departSpeed="0.00" departDelay="0.00" arrival="211.00" arrivalLane="-gneE5_0" arrivalPos="85.60" arrivalSpeed="9.89" duration="32.00" routeLength="182.33" waitingTime="3.00" waitingCount="1" stopTime="0.00" timeLoss="18.67" rerouteNo="0" devices="tripinfo_179" vType="DEFAULT_VEHTYPE" speedFactor="1.07" vaporized=""/>
    <tripinfo id="24" depart="24.00" departLane="gneE18_0" departPos="5.10" departSpeed="0.00" departDelay="0.00" arrival="216.00" arrivalLane="-gneE35_0" arrivalPos="292.80" arrivalSpeed="11.97" duration="192.00" routeLength="889.00" waitingTime="85.00" waitingCount="4" stopTime="0.00" timeLoss="115.47" rerouteNo="0" devices="tripinfo_24" vType="DEFAULT_VEHTYPE" speedFactor="0.88" vaporized=""/>
    <tripinfo id="40" depart="40.00" departLane="gneE11_0" departPos="5.10" departSpeed="0.00" departDelay="0.00" arrival="217.00" arrivalLane="-gneE25_0" arrivalPos="92.80" arrivalSpeed="15.54" duration="177.00" routeLength="1067.97" waitingTime="49.00" waitingCount="3" stopTime="0.00" timeLoss="106.86" rerouteNo="0" devices="tripinfo_40" vType="DEFAULT_VEHTYPE" speedFactor="1.13" vaporized=""/>
    <tripinfo id="141" depart="144.00" departLane="gneE18_0" departPos="5.10" departSpeed="0.00" departDelay="3.00" arrival="220.00" arrivalLane="-gneE25_0" arrivalPos="92.80" arrivalSpeed="12.10" duration="76.00" routeLength="284.16" waitingTime="29.00" waitingCount="3" stopTime="0.00" timeLoss="52.73" rerouteNo="0" devices="tripinfo_141" vType="DEFAULT_VEHTYPE" speedFactor="0.96" vaporized=""/>
    <tripinfo id="146" depart="147.00" departLane="gneE18_0" departPos="5.10" departSpeed="0.00" departDelay="1.00" arrival="222.00" arrivalLane="-gneE25_0" arrivalPos="92.80" arrivalSpeed="14.02" duration="75.00" routeLength="284.16" waitingTime="25.00" waitingCount="2" stopTime="0.00" timeLoss="54.78" rerouteNo="0" devices="tripinfo_146" vType="DEFAULT_VEHTYPE" speedFactor="1.10" vaporized=""/>
    <tripinfo id="126" depart="126.00" departLane="-gneE13_0" departPos="5.10" departSpeed="0.00" departDelay="0.00" arrival="225.00" arrivalLane="-gneE7_0" arrivalPos="92.80" arrivalSpeed="12.81" duration="99.00" routeLength="583.84" waitingTime="21.00" waitingCount="3" stopTime="0.00" timeLoss="54.48" rerouteNo="0" devices="tripinfo_126" vType="DEFAULT_VEHTYPE" speedFactor="1.01" vaporized=""/>
    <tripinfo id="148" depart="149.00" departLane="-gneE5_0" departPos="5.10" departSpeed="0.00" departDelay="1.00" arrival="225.00" arrivalLane="-gneE0_0" arrivalPos="92.80" arrivalSpeed="14.04" duration="76.00" routeLength="487.49" waitingTime="25.00" waitingCount="1" stopTime="0.00" timeLoss="43.26" rerouteNo="0" devices="tripinfo_148" vType="DEFAULT_VEHTYPE" speedFactor="1.10" vaporized=""/>